TITLE = "Channel Statistics (step=6000, n=301)"
VARIABLES = "Z" "Z_plus" "U_mean" "W_mean" "u_rms" "v_rms" "w_rms" "uw_stress" "P_mean"
ZONE T="Stats", I=96, J=1, K=1, DATAPACKING=POINT
2.07055162e-03 1.28243105e+02 -2.10150779e+03 4.55191440e-15 1.19884765e+04 3.22353931e+03 1.81108924e+02 -6.96859680e+04 3.01829324e+05
6.30974724e-03 3.90804831e+02 -8.49430972e+02 9.76996262e-15 9.01331381e+03 2.57312431e+03 4.18965141e+02 -2.91152193e+05 1.46346468e+05
1.07488550e-02 6.65748452e+02 -3.02064403e+02 8.43769499e-15 8.30189866e+03 2.38295278e+03 6.06994798e+02 -3.10576735e+05 -4.70182835e+04
1.53953750e-02 9.53538502e+02 -1.51175752e+01 1.77635684e-14 8.22069030e+03 2.25626814e+03 7.53018731e+02 -2.62020769e+05 -2.37962363e+05
2.02568878e-02 1.25464449e+03 1.25689380e+02 1.02140518e-14 8.50493353e+03 2.20985010e+03 8.80510481e+02 -3.86302978e+05 -4.53188140e+05
2.53410315e-02 1.56953950e+03 1.91270474e+02 9.76996262e-15 8.53310946e+03 2.20565571e+03 9.91416456e+02 -1.68564342e+05 -6.42413780e+05
3.06554770e-02 1.89869864e+03 2.18363380e+02 0.00000000e+00 8.24915755e+03 2.08341872e+03 1.07307427e+03 -1.12283247e+05 -7.98488020e+05
3.62078993e-02 2.24259727e+03 2.28998653e+02 7.10542736e-15 7.85805482e+03 2.04255409e+03 1.14168340e+03 -3.56653272e+04 -9.41196157e+05
4.20059471e-02 2.60170914e+03 1.97437620e+02 1.15463195e-14 7.79372608e+03 1.94774186e+03 1.19316020e+03 -1.12643387e+05 -1.05090475e+06
4.80572083e-02 2.97650420e+03 2.07442416e+02 3.55271368e-15 7.46185792e+03 1.95970053e+03 1.23763914e+03 -1.42491336e+05 -1.15285686e+06
5.43691726e-02 3.36744635e+03 1.46915564e+02 1.77635684e-15 6.94810924e+03 1.82687251e+03 1.27279850e+03 -3.68301444e+04 -1.23437078e+06
6.09491916e-02 3.77499091e+03 1.41595667e+02 -5.32907052e-15 6.50505631e+03 1.74179527e+03 1.29443614e+03 -1.19234776e+04 -1.27682773e+06
6.78044348e-02 4.19958196e+03 1.31544254e+02 -1.95399252e-14 6.22486288e+03 1.74174594e+03 1.30660965e+03 3.38989218e+04 -1.30989391e+06
7.49418430e-02 4.64164936e+03 1.24688980e+02 -8.88178420e-15 6.12584218e+03 1.72392809e+03 1.30489907e+03 2.58635065e+04 -1.28343814e+06
8.23680785e-02 5.10160578e+03 1.10841209e+02 -2.30926389e-14 5.63472499e+03 1.65652415e+03 1.31404161e+03 -2.43955581e+05 -1.34013265e+06
9.00894726e-02 5.57984334e+03 8.52608091e+01 0.00000000e+00 5.24037554e+03 1.62474811e+03 1.31353896e+03 1.07889243e+05 -1.29607644e+06
9.81119698e-02 6.07673022e+03 8.40373436e+01 -1.24344979e-14 4.86722883e+03 1.59640191e+03 1.29395268e+03 -2.24739952e+05 -1.26033180e+06
1.06441070e-01 6.59260706e+03 6.90815184e+01 -1.77635684e-14 4.50001886e+03 1.56901425e+03 1.29921571e+03 -1.65372505e+05 -1.28566508e+06
1.15081767e-01 7.12778323e+03 3.75486501e+01 -2.13162821e-14 4.21557517e+03 1.44762816e+03 1.29155552e+03 -1.19737901e+05 -1.24140813e+06
1.24038490e-01 7.68253297e+03 3.09434934e+01 -2.48689958e-14 3.81981630e+03 1.37761675e+03 1.25342980e+03 4.26940887e+04 -1.12631732e+06
1.33315036e-01 8.25709146e+03 1.00765080e+01 -1.42108547e-14 3.40389243e+03 1.22601510e+03 1.19236108e+03 5.03368566e+04 -9.72994323e+05
1.42914507e-01 8.85165086e+03 3.31101566e+01 -4.26325641e-14 3.02435870e+03 1.19342347e+03 1.13113244e+03 -2.20316387e+04 -8.44460971e+05
1.52839245e-01 9.46635623e+03 1.55495284e+01 -2.13162821e-14 2.62747066e+03 1.11393345e+03 1.07070762e+03 7.65407643e+04 -7.03855736e+05
1.63090768e-01 1.01013016e+04 2.55688442e+01 -1.77635684e-14 2.21837230e+03 9.98431498e+02 1.00729624e+03 4.88305953e+04 -5.86357197e+05
1.73669708e-01 1.07565261e+04 1.89985867e+01 -7.10542736e-15 1.98516976e+03 9.62859615e+02 9.45163174e+02 -6.59065822e+04 -4.62315447e+05
1.84575745e-01 1.14320099e+04 1.54884588e+01 0.00000000e+00 1.66878723e+03 8.79809564e+02 8.86328066e+02 7.61474908e+04 -3.70723426e+05
1.95807552e-01 1.21276708e+04 1.53833712e+01 -3.55271368e-15 1.51712688e+03 7.99481921e+02 8.30070480e+02 -5.39709264e+04 -2.70379171e+05
2.07362740e-01 1.28433608e+04 1.45439636e+01 0.00000000e+00 1.36412410e+03 7.19201648e+02 7.72021823e+02 5.66638221e+04 -1.85580315e+05
2.19237805e-01 1.35788630e+04 9.20226581e+00 1.06581410e-14 1.19787703e+03 6.74847052e+02 7.12310903e+02 3.23634312e+04 -9.40195611e+04
2.31428080e-01 1.43338882e+04 1.18354895e+01 1.77635684e-14 1.02424689e+03 6.40325412e+02 6.57626120e+02 1.53645482e+04 -3.36551195e+04
2.43927705e-01 1.51080736e+04 1.18896204e+01 1.77635684e-14 8.76590007e+02 5.81442921e+02 6.13020664e+02 -3.24817181e+04 2.87776023e+04
2.56729586e-01 1.59009796e+04 9.73255887e+00 1.06581410e-14 7.78634494e+02 5.32100811e+02 5.66316663e+02 4.79747952e+03 7.49276117e+04
2.69825375e-01 1.67120894e+04 8.69509700e+00 1.42108547e-14 7.39974154e+02 4.88282255e+02 5.22075761e+02 2.25029412e+03 1.22785669e+05
2.83205457e-01 1.75408074e+04 8.57516469e+00 1.42108547e-14 6.59040239e+02 4.64436261e+02 4.84622115e+02 1.23364845e+04 1.55150751e+05
2.96858947e-01 1.83864592e+04 1.18525637e+01 -7.10542736e-15 6.13713688e+02 4.12382971e+02 4.54467503e+02 -1.50468898e+04 1.82801051e+05
3.10773688e-01 1.92482922e+04 6.24791322e+00 7.10542736e-15 5.77761964e+02 3.83382903e+02 4.26670463e+02 1.95862672e+04 2.05805832e+05
3.24936280e-01 2.01254762e+04 9.65355814e+00 1.06581410e-14 4.94806495e+02 3.55548325e+02 3.99438227e+02 -8.96591817e+03 2.27435392e+05
3.39332099e-01 2.10171055e+04 5.74143207e+00 1.77635684e-14 4.68671406e+02 3.26588397e+02 3.75237737e+02 6.57906197e+03 2.44941721e+05
3.53945343e-01 2.19222014e+04 6.18492718e+00 -2.13162821e-14 4.07648415e+02 3.02488026e+02 3.53904442e+02 -8.12899955e+02 2.59582419e+05
3.68759083e-01 2.28397153e+04 6.15210683e+00 -3.55271368e-15 3.92671835e+02 2.89534748e+02 3.34468754e+02 -4.12658689e+03 2.72215716e+05
3.83755327e-01 2.37685330e+04 4.72971080e+00 -1.77635684e-15 3.62748909e+02 2.68236835e+02 3.16661130e+02 8.02118601e+03 2.83205876e+05
3.98915098e-01 2.47074790e+04 4.84442341e+00 0.00000000e+00 3.50946346e+02 2.56655607e+02 3.00365757e+02 -3.36853577e+03 2.92756164e+05
4.14218517e-01 2.56553221e+04 3.65547876e+00 -1.24344979e-14 3.37045957e+02 2.42266626e+02 2.85367793e+02 2.13106357e+03 3.01172968e+05
4.29644904e-01 2.66107813e+04 3.39660977e+00 3.55271368e-15 3.27922082e+02 2.31935528e+02 2.71586176e+02 2.08030979e+02 3.08472413e+05
4.45172882e-01 2.75725328e+04 2.53080765e+00 8.88178420e-15 3.22636532e+02 2.18976031e+02 2.58711585e+02 1.15698074e+03 3.15141376e+05
4.60780492e-01 2.85392165e+04 1.58847038e+00 3.55271368e-15 3.15364753e+02 2.12218099e+02 2.46510487e+02 7.55149553e+02 3.21058270e+05
4.76445316e-01 2.95094437e+04 1.85906963e+00 3.55271368e-15 3.09440382e+02 2.02797754e+02 2.35121946e+02 -8.57786955e+02 3.26369444e+05
4.92144602e-01 3.04818055e+04 -1.00847062e-01 -8.88178420e-15 3.08187836e+02 1.95482256e+02 2.24296524e+02 1.59737676e+03 3.31182690e+05
5.07855398e-01 3.14548801e+04 -4.31143912e-01 -1.77635684e-15 3.01338941e+02 1.88331306e+02 2.13988038e+02 -3.49408784e+02 3.35578869e+05
5.23554684e-01 3.24272418e+04 -9.25385656e-01 7.10542736e-15 2.98660230e+02 1.82225989e+02 2.04192233e+02 3.19215143e+02 3.39551497e+05
5.39219508e-01 3.33974691e+04 -2.14327657e+00 -7.10542736e-15 2.95633079e+02 1.76408948e+02 1.94824482e+02 4.84202967e+02 3.43212005e+05
5.54827118e-01 3.43641527e+04 -2.91442173e+00 -7.10542736e-15 2.92389460e+02 1.70999072e+02 1.85843473e+02 2.70194128e+01 3.46534205e+05
5.70355096e-01 3.53259042e+04 -3.62530306e+00 -3.55271368e-15 2.90112451e+02 1.66523619e+02 1.77254692e+02 2.81766871e+02 3.49588002e+05
5.85781483e-01 3.62813635e+04 -4.38502426e+00 -1.06581410e-14 2.87754845e+02 1.61768160e+02 1.69000522e+02 1.90060148e+02 3.52377736e+05
6.01084902e-01 3.72292066e+04 -4.98297520e+00 -8.88178420e-15 2.85206180e+02 1.57800554e+02 1.61086469e+02 1.55875132e+02 3.54935226e+05
6.16244673e-01 3.81681525e+04 -5.67951364e+00 -7.10542736e-15 2.83636292e+02 1.53878726e+02 1.53472019e+02 2.18988115e+02 3.57280954e+05
6.31240917e-01 3.90969702e+04 -6.18678806e+00 -5.32907052e-15 2.81310231e+02 1.50451267e+02 1.46149904e+02 1.60715126e+02 3.59431290e+05
6.46054657e-01 4.00144841e+04 -6.81110193e+00 -7.10542736e-15 2.79799664e+02 1.47079621e+02 1.39099873e+02 1.82455762e+02 3.61404459e+05
6.60667901e-01 4.09195800e+04 -7.12253697e+00 -3.55271368e-15 2.78000218e+02 1.44063862e+02 1.32317791e+02 1.42189844e+02 3.63210002e+05
6.75063720e-01 4.18112093e+04 -8.01512964e+00 -8.88178420e-16 2.76800071e+02 1.41103811e+02 1.25790627e+02 1.14942766e+02 3.64864902e+05
6.89226312e-01 4.26883933e+04 -8.52524231e+00 -4.44089210e-15 2.75148586e+02 1.38657392e+02 1.19501050e+02 1.14219616e+02 3.66381064e+05
7.03141053e-01 4.35502263e+04 -8.88010939e+00 -2.66453526e-15 2.73748002e+02 1.36118702e+02 1.13445933e+02 9.09173220e+01 3.67767213e+05
7.16794543e-01 4.43958782e+04 -9.17880500e+00 0.00000000e+00 2.72619284e+02 1.34011844e+02 1.07620097e+02 9.04690438e+01 3.69033624e+05
7.30174625e-01 4.52245962e+04 -9.85344521e+00 -8.88178420e-16 2.71205224e+02 1.31655588e+02 1.02011083e+02 7.86831624e+01 3.70190659e+05
7.43270414e-01 4.60357059e+04 -9.86624158e+00 -8.88178420e-16 2.70423209e+02 1.29983453e+02 9.66046439e+01 4.98628373e+01 3.71247936e+05
7.56072295e-01 4.68286120e+04 -1.09130358e+01 -5.32907052e-15 2.69608915e+02 1.28409272e+02 9.14004888e+01 5.72975111e+01 3.72211122e+05
7.68571920e-01 4.76027973e+04 -1.05164147e+01 -1.77635684e-15 2.68854302e+02 1.26749807e+02 8.63805212e+01 3.52634953e+01 3.73090967e+05
7.80762195e-01 4.83578226e+04 -1.06026949e+01 -1.77635684e-15 2.68176770e+02 1.25171692e+02 8.15459811e+01 4.30942790e+01 3.73890495e+05
7.92637260e-01 4.90933247e+04 -1.11499082e+01 -1.77635684e-15 2.67548343e+02 1.23867614e+02 7.68987401e+01 1.83377668e+01 3.74615632e+05
8.04192448e-01 4.98090147e+04 -1.07335579e+01 -2.66453526e-15 2.66557456e+02 1.22912754e+02 7.24295271e+01 5.69756389e+01 3.75273810e+05
8.15424255e-01 5.05046757e+04 -1.12591551e+01 8.88178420e-16 2.66548038e+02 1.21704240e+02 6.81177457e+01 3.13386773e+01 3.75871520e+05
8.26330292e-01 5.11801595e+04 -1.11668969e+01 0.00000000e+00 2.65995239e+02 1.20712565e+02 6.39708020e+01 3.50606426e+01 3.76411416e+05
8.36909232e-01 5.18353839e+04 -1.13354325e+01 -7.54951657e-15 2.65675239e+02 1.19931517e+02 5.99760839e+01 4.40977169e+01 3.76899874e+05
8.47160755e-01 5.24703293e+04 -1.08997522e+01 -3.99680289e-15 2.65134644e+02 1.18845029e+02 5.61308824e+01 3.92034756e+01 3.77340047e+05
8.57085493e-01 5.30850347e+04 -1.07757354e+01 -2.22044605e-15 2.64793956e+02 1.18143583e+02 5.24379237e+01 3.02938875e+01 3.77735215e+05
8.66684964e-01 5.36795941e+04 -1.02723070e+01 -1.33226763e-15 2.64526573e+02 1.17698566e+02 4.88835972e+01 3.87776739e+01 3.78090386e+05
8.75961510e-01 5.42541526e+04 -1.01431546e+01 -8.88178420e-16 2.64484056e+02 1.17035112e+02 4.54643430e+01 3.72788668e+01 3.78408515e+05
8.84918233e-01 5.48089023e+04 -9.82718878e+00 -1.33226763e-15 2.64435437e+02 1.16414419e+02 4.21790494e+01 2.93823489e+01 3.78691975e+05
8.93558930e-01 5.53440785e+04 -1.02212140e+01 4.44089210e-16 2.64215735e+02 1.15965891e+02 3.90335944e+01 2.36949888e+01 3.78943335e+05
9.01888030e-01 5.58599553e+04 -9.82751695e+00 -4.44089210e-16 2.63875395e+02 1.15621392e+02 3.60156695e+01 2.92801835e+01 3.79166525e+05
9.09910527e-01 5.63568422e+04 -9.03976348e+00 -1.33226763e-15 2.63837009e+02 1.15405858e+02 3.31131297e+01 1.45605258e+01 3.79363932e+05
9.17631921e-01 5.68350798e+04 -9.05703967e+00 -2.66453526e-15 2.63852581e+02 1.15050247e+02 3.03307268e+01 2.78827495e+01 3.79537560e+05
9.25058157e-01 5.72950362e+04 -8.54610587e+00 2.22044605e-16 2.63113923e+02 1.14900219e+02 2.76614585e+01 2.87974295e+01 3.79689540e+05
9.32195565e-01 5.77371036e+04 -8.54044201e+00 4.44089210e-16 2.63545242e+02 1.14406905e+02 2.51069769e+01 2.28156087e+01 3.79821679e+05
9.39050808e-01 5.81616946e+04 -8.77208882e+00 -4.44089210e-16 2.63703082e+02 1.14326615e+02 2.26572743e+01 1.95065959e+01 3.79936775e+05
9.45630827e-01 5.85692392e+04 -8.76675249e+00 -4.44089210e-16 2.63586404e+02 1.14057123e+02 2.03030384e+01 1.85394483e+01 3.80035460e+05
9.51942792e-01 5.89601813e+04 -8.69820840e+00 -2.22044605e-16 2.63650881e+02 1.13864763e+02 1.80400453e+01 1.54842427e+01 3.80120639e+05
9.57994053e-01 5.93349764e+04 -8.17804406e+00 1.11022302e-16 2.63205216e+02 1.13788981e+02 1.58548588e+01 1.16205027e+01 3.80192802e+05
9.63792101e-01 5.96940883e+04 -8.95743298e+00 -4.44089210e-16 2.63302778e+02 1.13645493e+02 1.37631491e+01 9.38603888e+00 3.80252951e+05
9.69344523e-01 6.00379869e+04 -8.47465253e+00 0.00000000e+00 2.63285457e+02 1.13809246e+02 1.17679210e+01 9.48436010e+00 3.80302201e+05
9.74658968e-01 6.03671460e+04 -8.81395497e+00 2.22044605e-16 2.63124296e+02 1.13812139e+02 9.85349842e+00 1.15013503e+01 3.80342159e+05
9.79743112e-01 6.06820411e+04 -9.70952210e+00 -1.11022302e-16 2.63175421e+02 1.13716588e+02 7.99000711e+00 1.11402494e+01 3.80374143e+05
9.84604625e-01 6.09831470e+04 -1.11987533e+01 4.44089210e-16 2.63550190e+02 1.13846321e+02 6.16633635e+00 9.87990709e+00 3.80398564e+05
9.89251145e-01 6.12709371e+04 -1.24563728e+01 1.11022302e-16 2.63301204e+02 1.13895786e+02 4.41743668e+00 7.83938720e+00 3.80415652e+05
9.93690253e-01 6.15458807e+04 -1.53069736e+01 -5.55111512e-17 2.63694076e+02 1.13886671e+02 2.71712543e+00 5.89799760e+00 3.80426583e+05
9.97929448e-01 6.18084424e+04 -2.02302413e+01 0.00000000e+00 2.63197660e+02 1.13602436e+02 9.63656376e-01 1.59493460e+00 3.80431703e+05
